<?xml version="1.0"?>
<VTKFile type="UnstructuredGrid" version="0.1" byte_order="LittleEndian">
   <UnstructuredGrid>
      <Piece NumberOfPoints="4096" NumberOfCells="19971" > 
         <Points> 
            <DataArray type="Float64" Name="Position" NumberOfComponents="3" format="ascii"> 
               0.0078125  0  0.0078125  
               0.0078125  0  0.0234375  
               0.0078125  0  0.0390625  
               0.0078125  0  0.0546875  
               0.0078125  0  0.0703125  
               0.0078125  0  0.0859375  
               0.0078125  0  0.101562  
               0.0078125  0  0.117188  
               0.0078125  0  0.132812  
               0.0078125  0  0.148438  
               0.0078125  0  0.164062  
               0.0078125  0  0.179688  
               0.0078125  0  0.195312  
               0.0078125  0  0.210938  
               0.0078125  0  0.226562  
               0.0078125  0  0.242188  
               0.0078125  0  0.257812  
               0.0078125  0  0.273438  
               0.0078125  0  0.289062  
               0.0078125  0  0.304688  
               0.0078125  0  0.320312  
               0.0078125  0  0.335938  
               0.0078125  0  0.351562  
               0.0078125  0  0.367188  
               0.0078125  0  0.382812  
               0.0078125  0  0.398438  
               0.0078125  0  0.414062  
               0.0078125  0  0.429688  
               0.0078125  0  0.445312  
               0.0078125  0  0.460938  
               0.0078125  0  0.476562  
               0.0078125  0  0.492188  
               0.0078125  0  0.507812  
               0.0078125  0  0.523438  
               0.0078125  0  0.539062  
               0.0078125  0  0.554688  
               0.0078125  0  0.570312  
               0.0078125  0  0.585938  
               0.0078125  0  0.601562  
               0.0078125  0  0.617188  
               0.0078125  0  0.632812  
               0.0078125  0  0.648438  
               0.0078125  0  0.664062  
               0.0078125  0  0.679688  
               0.0078125  0  0.695312  
               0.0078125  0  0.710938  
               0.0078125  0  0.726562  
               0.0078125  0  0.742188  
               0.0078125  0  0.757812  
               0.0078125  0  0.773438  
               0.0078125  0  0.789062  
               0.0078125  0  0.804688  
               0.0078125  0  0.820312  
               0.0078125  0  0.835938  
               0.0078125  0  0.851562  
               0.0078125  0  0.867188  
               0.0078125  0  0.882812  
               0.0078125  0  0.898438  
               0.0078125  0  0.914062  
               0.0078125  0  0.929688  
               0.0078125  0  0.945312  
               0.0078125  0  0.960938  
               0.0078125  0  0.976562  
               0.0078125  0  0.992188  
               0.0234375  0  0.0078125  
               0.0234375  0  0.0234375  
               0.0234375  0  0.0390625  
               0.0234375  0  0.0546875  
               0.0234375  0  0.0703125  
               0.0234375  0  0.0859375  
               0.0234375  0  0.101562  
               0.0234375  0  0.117188  
               0.0234375  0  0.132812  
               0.0234375  0  0.148438  
               0.0234375  0  0.164062  
               0.0234375  0  0.179688  
               0.0234375  0  0.195312  
               0.0234375  0  0.210938  
               0.0234375  0  0.226562  
               0.0234375  0  0.242188  
               0.0234375  0  0.257812  
               0.0234375  0  0.273438  
               0.0234375  0  0.289062  
               0.0234375  0  0.304688  
               0.0234375  0  0.320312  
               0.0234375  0  0.335938  
               0.0234375  0  0.351562  
               0.0234375  0  0.367188  
               0.0234375  0  0.382812  
               0.0234375  0  0.398438  
               0.0234375  0  0.414062  
               0.0234375  0  0.429688  
               0.0234375  0  0.445312  
               0.0234375  0  0.460938  
               0.0234375  0  0.476562  
               0.0234375  0  0.492188  
               0.0234375  0  0.507812  
               0.0234375  0  0.523438  
               0.0234375  0  0.539062  
               0.0234375  0  0.554688  
               0.0234375  0  0.570312  
               0.0234375  0  0.585938  
               0.0234375  0  0.601562  
               0.0234375  0  0.617188  
               0.0234375  0  0.632812  
               0.0234375  0  0.648438  
               0.0234375  0  0.664062  
               0.0234375  0  0.679688  
               0.0234375  0  0.695312  
               0.0234375  0  0.710938  
               0.0234375  0  0.726562  
               0.0234375  0  0.742188  
               0.0234375  0  0.757812  
               0.0234375  0  0.773438  
               0.0234375  0  0.789062  
               0.0234375  0  0.804688  
               0.0234375  0  0.820312  
               0.0234375  0  0.835938  
               0.0234375  0  0.851562  
               0.0234375  0  0.867188  
               0.0234375  0  0.882812  
               0.0234375  0  0.898438  
               0.0234375  0  0.914062  
               0.0234375  0  0.929688  
               0.0234375  0  0.945312  
               0.0234375  0  0.960938  
               0.0234375  0  0.976562  
               0.0234375  0  0.992188  
               0.0390625  0  0.0078125  
               0.0390625  0  0.0234375  
               0.0390625  0  0.0390625  
               0.0390625  0  0.0546875  
               0.0390625  0  0.0703125  
               0.0390625  0  0.0859375  
               0.0390625  0  0.101562  
               0.0390625  0  0.117188  
               0.0390625  0  0.132812  
               0.0390625  0  0.148438  
               0.0390625  0  0.164062  
               0.0390625  0  0.179688  
               0.0390625  0  0.195312  
               0.0390625  0  0.210938  
               0.0390625  0  0.226562  
               0.0390625  0  0.242188  
               0.0390625  0  0.257812  
               0.0390625  0  0.273438  
               0.0390625  0  0.289062  
               0.0390625  0  0.304688  
               0.0390625  0  0.320312  
               0.0390625  0  0.335938  
               0.0390625  0  0.351562  
               0.0390625  0  0.367188  
               0.0390625  0  0.382812  
               0.0390625  0  0.398438  
               0.0390625  0  0.414062  
               0.0390625  0  0.429688  
               0.0390625  0  0.445312  
               0.0390625  0  0.460938  
               0.0390625  0  0.476562  
               0.0390625  0  0.492188  
               0.0390625  0  0.507812  
               0.0390625  0  0.523438  
               0.0390625  0  0.539062  
               0.0390625  0  0.554688  
               0.0390625  0  0.570312  
               0.0390625  0  0.585938  
               0.0390625  0  0.601562  
               0.0390625  0  0.617188  
               0.0390625  0  0.632812  
               0.0390625  0  0.648438  
               0.0390625  0  0.664062  
               0.0390625  0  0.679688  
               0.0390625  0  0.695312  
               0.0390625  0  0.710938  
               0.0390625  0  0.726562  
               0.0390625  0  0.742188  
               0.0390625  0  0.757812  
               0.0390625  0  0.773438  
               0.0390625  0  0.789062  
               0.0390625  0  0.804688  
               0.0390625  0  0.820312  
               0.0390625  0  0.835938  
               0.0390625  0  0.851562  
               0.0390625  0  0.867188  
               0.0390625  0  0.882812  
               0.0390625  0  0.898438  
               0.0390625  0  0.914062  
               0.0390625  0  0.929688  
               0.0390625  0  0.945312  
               0.0390625  0  0.960938  
               0.0390625  0  0.976562  
               0.0390625  0  0.992188  
               0.0546875  0  0.0078125  
               0.0546875  0  0.0234375  
               0.0546875  0  0.0390625  
               0.0546875  0  0.0546875  
               0.0546875  0  0.0703125  
               0.0546875  0  0.0859375  
               0.0546875  0  0.101562  
               0.0546875  0  0.117188  
               0.0546875  0  0.132812  
               0.0546875  0  0.148438  
               0.0546875  0  0.164062  
               0.0546875  0  0.179688  
               0.0546875  0  0.195312  
               0.0546875  0  0.210938  
               0.0546875  0  0.226562  
               0.0546875  0  0.242188  
               0.0546875  0  0.257812  
               0.0546875  0  0.273438  
               0.0546875  0  0.289062  
               0.0546875  0  0.304688  
               0.0546875  0  0.320312  
               0.0546875  0  0.335938  
               0.0546875  0  0.351562  
               0.0546875  0  0.367188  
               0.0546875  0  0.382812  
               0.0546875  0  0.398438  
               0.0546875  0  0.414062  
               0.0546875  0  0.429688  
               0.0546875  0  0.445312  
               0.0546875  0  0.460938  
               0.0546875  0  0.476562  
               0.0546875  0  0.492188  
               0.0546875  0  0.507812  
               0.0546875  0  0.523438  
               0.0546875  0  0.539062  
               0.0546875  0  0.554688  
               0.0546875  0  0.570312  
               0.0546875  0  0.585938  
               0.0546875  0  0.601562  
               0.0546875  0  0.617188  
               0.0546875  0  0.632812  
               0.0546875  0  0.648438  
               0.0546875  0  0.664062  
               0.0546875  0  0.679688  
               0.0546875  0  0.695312  
               0.0546875  0  0.710938  
               0.0546875  0  0.726562  
               0.0546875  0  0.742188  
               0.0546875  0  0.757812  
               0.0546875  0  0.773438  
[...]
         <PointData Scalars="Rank " Vectors="Forces ">
            <DataArray type="UInt32" Name="Rank" NumberOfComponents="1" format="ascii">
               0 0 0 0 0 0 0 0 0 0 0 0 0 0 0 0 0 0 0 0 0 0 0 0 0 0 0 0 0 0 0 0 0 0 0 0 0 0 0 0 0 0 0 0 0 0 0 0 0 0 0 0 0 0 0 0 0 0 0 0 0 0 0 0 0 0 0 0 0 0 0 0 0 0 0 0 0 0 0 0 0 0 0 0 0 0 0 0 0 0 0 0 0 0 0 0 0 0 0 0 0 0 0 0 0 0 0 0 0 0 0 0 0 0 0 0 0 0 0 0 0 0 0 0 0 0 0 0 0 0 0 0 0 0 0 0 0 0 0 0 0 0 0 0 0 0 0 0 0 0 0 0 0 0 0 0 0 0 0 0 0 0 0 0 0 0 0 0 0 0 0 0 0 0 0 0 0 0 0 0 0 0 0 0 0 0 0 0 0 0 0 0 0 0 0 0 0 0 0 0 0 0 0 0 0 0 0 0 0 0 0 0 0 0 0 0 0 0 0 0 0 0 0 0 0 0 0 0 0 0 0 0 0 0 0 0 0 0 0 0 0 0 0 0 0 0 0 0 0 0 0 0 0 0 0 0 0 0 0 0 0 0 0 0 0 0 0 0 0 0 0 0 0 0 0 0 0 0 0 0 0 0 0 0 0 0 0 0 0 0 0 0 0 0 0 0 0 0 0 0 0 0 0 0 0 0 0 0 0 0 0 0 0 0 0 0 0 0 0 0 0 0 0 0 0 0 0 0 0 0 0 0 0 0 0 0 0 0 0 0 0 0 0 0 0 0 0 0 0 0 0 0 0 0 0 0 0 0 0 0 0 0 0 0 0 0 0 0 0 0 0 0 0 0 0 0 0 0 0 0 0 0 0 0 0 0 0 0 0 0 0 0 0 0 0 0 0 0 0 0 0 0 0 0 0 0 0 0 0 0 0 0 0 0 0 0 0 0 0 0 0 0 0 0 0 0 0 0 0 0 0 0 0 0 0 0 0 0 0 0 0 0 0 0 0 0 0 0 0 0 0 0 0 0 0 0 0 0 0 0 0 0 0 0 0 0 0 0 0 0 0 0 0 0 0 0 0 0 0 0 0 0 0 0 0 0 0 0 0 0 0 0 0 0 0 0 0 0 0 0 0 0 0 0 0 0 0 0 0 0 0 0 0 0 0 0 0 0 0 0 0 0 0 0 0 0 0 0 0 0 0 0 0 0 0 0 0 0 0 0 0 0 0 0 0 0 0 0 0 0 0 0 0 0 0 0 0 0 0 0 0 0 0 0 0 0 0 0 0 0 0 0 0 0 0 0 0 0 0 0 0 0 0 0 0 0 0 0 0 0 0 0 0 0 0 0 0 0 0 0 0 0 0 0 0 0 0 0 0 0 0 0 0 0 0 0 0 0 0 0 0 0 0 0 0 0 0 0 0 0 0 0 0 0 0 0 0 0 0 0 0 0 0 0 0 0 0 0 0 0 0 0 0 0 0 0 0 0 0 0 0 0 0 0 0 0 0 0 0 0 0 0 0 0 0 0 0 0 0 0 0 0 0 0 0 0 0 0 0 0 0 0 0 0 0 0 0 0 0 0 0 0 0 0 0 0 0 0 0 0 0 0 0 0 0 0 0 0 0 0 0 0 0 0 0 0 0 0 0 0 0 0 0 0 0 0 0 0 0 0 0 0 0 0 0 0 0 0 0 0 0 0 0 0 0 0 0 0 0 0 0 0 0 0 0 0 0 0 0 0 0 0 0 0 0 0 0 0 0 0 0 0 0 0 0 0 0 0 0 0 0 0 0 0 0 0 0 0 0 0 0 0 0 0 0 0 0 0 0 0 0 0 0 0 0 0 0 0 0 0 0 0 0 0 0 0 0 0 0 0 0 0 0 0 0 0 0 0 0 0 0 0 0 0 0 0 0 0 0 0 0 0 0 0 0 0 0 0 0 0 0 0 0 0 0 0 0 0 0 0 0 0 0 0 0 0 0 0 0 0 0 0 0 0 0 0 0 0 0 0 0 0 0 0 0 0 0 0 0 0 0 0 0 0 0 0 0 0 0 0 0 0 0 0 0 0 0 0 0 0 0 0 0 0 0 0 0 0 0 0 0 0 0 0 0 0 0 0 0 0 0 0 0 0 0 0 0 0 0 0 0 0 0 0 0 0 0 0 0 0 0 0 0 0 0 0 0 0 0 0 0 0 0 0 0 0 0 0 0 0 0 0 0 0 0 0 0 0 0 0 0 0 0 0 0 0 0 0 0 0 0 0 0 0 0 0 0 0 0 0 0 0 0 0 0 0 0 0 0 0 0 0 0 0 0 0 0 0 0 0 0 0 0 0 0 0 0 0 0 0 0 0 0 0 0 0 0 0 0 0 0 0 0 0 0 0 0 0 0 0 0 0 0 0 0 0 0 0 0 0 0 0 0 0 0 0 0 0 0 0 0 0 0 0 0 0 0 0 0 0 0 0 0 0 0 0 0 0 0 0 0 0 0 0 0 0 0 0 0 0 0 0 0 0 0 0 0 0 0 0 0 0 0 0 0 0 0 0 0 0 0 0 0 0 0 0 0 0 0 0 0 0 0 0 0 0 0 0 0 0 0 0 0 0 0 0 0 0 0 0 0 0 0 0 0 0 0 0 0 0 0 0 0 0 0 0 0 0 0 0 0 0 0 0 0 0 0 0 0 0 0 0 0 0 0 0 0 0 0 0 0 0 0 0 0 0 0 0 0 0 0 0 0 0 0 0 0 0 0 0 0 0 0 0 0 0 0 0 0 0 0 0 0 0 0 0 0 0 0 0 0 0 0 0 0 0 0 0 0 0 0 0 0 0 0 0 0 0 0 0 0 0 0 0 0 0 0 0 0 0 0 0 0 0 0 0 0 0 0 0 0 0 0 0 0 0 0 0 0 0 0 0 0 0 0 0 0 0 0 0 0 0 0 0 0 0 0 0 0 0 0 0 0 0 0 0 0 0 0 0 0 0 0 0 0 0 0 0 0 0 0 0 0 0 0 0 0 0 0 0 0 0 0 0 0 0 0 0 0 0 0 0 0 0 0 0 0 0 0 0 0 0 0 0 0 0 0 0 0 0 0 0 0 0 0 0 0 0 0 0 0 0 0 0 0 0 0 0 0 0 0 0 0 0 0 0 0 0 0 0 0 0 0 0 0 0 0 0 0 0 0 0 0 0 0 0 0 0 0 0 0 0 0 0 0 0 0 0 0 0 0 0 0 0 0 0 0 0 0 0 0 0 0 0 0 0 0 0 0 0 0 0 0 0 0 0 0 0 0 0 0 0 0 0 0 0 0 0 0 0 0 0 0 0 0 0 0 0 0 0 0 0 0 0 0 0 0 0 0 0 0 0 0 0 0 0 0 0 0 0 0 0 0 0 0 0 0 0 0 0 0 0 0 0 0 0 0 0 0 0 0 0 0 0 0 0 0 0 0 0 0 0 0 0 0 0 0 0 0 0 0 0 0 0 0 0 0 0 0 0 0 0 0 0 0 0 0 0 0 0 0 0 0 0 0 0 0 0 0 0 0 0 0 0 0 0 0 0 0 0 0 0 0 0 0 0 0 0 0 0 0 0 0 0 0 0 0 0 0 0 0 0 0 0 0 0 0 0 0 0 0 0 0 0 0 0 0 0 0 0 0 0 0 0 0 0 0 0 0 0 0 0 0 0 0 0 0 0 0 0 0 0 0 0 0 0 0 0 0 0 0 0 0 0 0 0 0 0 0 0 0 0 0 0 0 0 0 0 0 0 0 0 0 0 0 0 0 0 0 0 0 0 0 0 0 0 0 0 0 0 0 0 0 0 0 0 0 0 0 0 0 0 0 0 0 0 0 0 0 0 0 0 0 0 0 0 0 0 0 0 0 0 0 0 0 0 0 0 0 0 0 0 0 0 0 0 0 0 0 0 0 0 0 0 0 0 0 0 0 0 0 0 0 0 0 0 0 0 0 0 0 0 0 0 0 0 0 0 0 0 0 0 0 0 0 0 0 0 0 0 0 0 0 0 0 0 0 0 0 0 0 0 0 0 0 0 0 0 0 0 0 0 0 0 0 0 0 0 0 0 0 0 0 0 0 0 0 0 0 0 0 0 0 0 0 0 0 0 0 0 0 0 0 0 0 0 0 0 0 0 0 0 0 0 0 0 0 0 0 0 0 0 0 0 0 0 0 0 0 0 0 0 0 0 0 0 0 0 0 0 0 0 0 0 0 0 0 0 0 0 0 0 0 0 0 0 0 0 0 0 0 0 0 0 0 0 0 0 0 0 0 0 0 0 0 0 0 0 0 0 0 0 0 0 0 0 0 0 0 0 0 0 0 0 0 0 0 0 0 0 0 0 0 0 0 0 0 0 0 0 0 0 0 0 0 0 0 0 0 0 0 0 0 0 0 0 0 0 0 0 0 0 0 0 0 0 0 0 0 0 0 0 0 0 0 0 0 0 0 0 0 0 0 0 0 0 0 0 0 0 0 0 0 0 0 0 0 0 0 0 0 0 0 0 0 0 0 0 0 0 0 0 0 0 0 0 0 0 0 0 0 0 0 0 0 0 0 0 0 0 0 0 0 0 0 0 0 0 0 0 0 0 0 0 0 0 0 0 0 0 0 0 0 0 0 0 0 0 0 0 0 0 0 0 0 0 0 0 0 0 0 0 0 0 0 0 0 0 0 0 0 0 0 0 0 0 0 0 0 0 0 0 0 0 0 0 0 0 0 0 0 0 0 0 0 0 0 0 0 0 0 0 0 0 0 0 0 0 0 0 0 0 0 0 0 0 0 0 0 0 0 0 0 0 0 0 0 0 0 0 0 0 0 0 0 0 0 0 0 0 0 0 0 0 0 0 0 0 0 0 0 0 0 0 0 0 0 0 0 0 0 0 0 0 0 0 0 0 0 0 0 0 0 0 0 0 0 0 0 0 0 0 0 0 0 0 0 0 0 0 0 0 0 0 0 0 0 0 0 0 0 0 0 0 0 0 0 0 0 0 0 0 0 0 0 0 0 0 0 0 0 0 0 0 0 0 0 0 0 0 0 0 0 0 0 0 0 0 0 0 0 0 0 0 0 0 0 0 0 0 0 0 0 0 0 0 0 0 0 0 0 0 0 0 0 0 0 0 0 0 0 0 0 0 0 0 0 0 0 0 0 0 0 0 0 0 0 0 0 0 0 0 0 0 0 0 0 0 0 0 0 0 0 0 0 0 0 0 0 0 0 0 0 0 0 0 0 0 0 0 0 0 0 0 0 0 0 0 0 0 0 0 0 0 0 0 0 0 0 0 0 0 0 0 0 0 0 0 0 0 0 0 0 0 0 0 0 0 0 0 0 0 0 0 0 0 0 0 0 0 0 0 0 0 0 0 0 0 0 0 0 0 0 0 0 0 0 0 0 0 0 0 0 0 0 0 0 0 0 0 0 0 0 0 0 0 0 0 0 0 0 0 0 0 0 0 0 0 0 0 0 0 0 0 0 0 0 0 0 0 0 0 0 0 0 0 0 0 0 0 0 0 0 0 0 0 0 0 0 0 0 0 0 0 0 0 0 0 0 0 0 0 0 0 0 0 0 0 0 0 0 0 0 0 0 0 0 0 0 0 0 0 0 0 0 0 0 0 0 0 0 0 0 0 0 0 0 0 0 0 0 0 0 0 0 0 0 0 0 0 0 0 0 0 0 0 0 0 0 0 0 0 0 0 0 0 0 0 0 0 0 0 0 0 0 0 0 0 0 0 0 0 0 0 0 0 0 0 0 0 0 0 0 0 0 0 0 0 0 0 0 0 0 0 0 0 0 0 0 0 0 0 0 0 0 0 0 0 0 0 0 0 0 0 0 0 0 0 0 0 0 0 0 0 0 0 0 0 0 0 0 0 0 0 0 0 0 0 0 0 0 0 0 0 0 0 0 0 0 0 0 0 0 0 0 0 0 0 0 0 0 0 0 0 0 0 0 0 0 0 0 0 0 0 0 0 0 0 0 0 0 0 0 0 0 0 0 0 0 0 0 0 0 0 0 0 0 0 0 0 0 0 0 0 0 0 0 0 0 0 0 0 0 0 0 0 0 0 0 0 0 0 0 0 0 0 0 0 0 0 0 0 0 0 0 0 0 0 0 0 0 0 0 0 0 0 0 0 0 0 0 0 0 0 0 0 0 0 0 0 0 0 0 0 0 0 0 0 0 0 0 0 0 0 0 0 0 0 0 0 0 0 0 0 0 0 0 0 0 0 0 0 0 0 0 0 0 0 0 0 0 0 0 0 0 0 0 0 0 0 0 0 0 0 0 0 0 0 0 0 0 0 0 0 0 0 0 0 0 0 0 0 0 0 0 0 0 0 0 0 0 0 0 0 0 0 0 0 0 0 0 0 0 0 0 0 0 0 0 0 0 0 0 0 0 0 0 0 0 0 0 0 0 0 0 0 0 0 0 0 0 0 0 0 0 0 0 0 0 0 0 0 0 0 0 0 0 0 0 0 0 0 0 0 0 0 0 0 0 0 0 0 0 0 0 0 0 0 0 0 0 0 0 0 0 0 0 0 0 0 0 0 0 0 0 0 0 0 0 0 0 0 0 0 0 0 0 0 0 0 0 0 0 0 0 0 0 0 0 0 0 0 0 0 0 0 0 0 0 0 0 0 0 0 0 0 0 0 0 0 0 0 0 0 0 0 0 0 0 0 0 0 0 0 0 0 0 0 0 0 0 0 0 0 0 0 0 0 0 0 0 0 0 0 0 0 0 0 0 0 0 0 0 0 0 0 0 0 0 0 0 0 0 0 0 0 0 0 0 0 0 0 0 0 0 0 0 0 0 0 0 0 0 0 0 0 0 0 0 0 0 0 0 0 0 0 0 0 0 0 0 0 0 0 0 0 0 0 0 0 0 0 0 0 0 0 0 0 0 0 0 0 0 0 0 0 0 0 0 0 0 0 0 0 0 0 0 0 0 0 0 0 0 0 0 0 0 0 0 0 0 0 0 0 0 0 0 0 0 0 0 0 0 0 0 0 0 0 0 0 0 0 0 0 0 0 0 0 0 0 0 0 0 0 0 0 0 0 0 0 0 0 0 0 0 0 0 0 0 0 0 0 0 0 0 0 0 0 0 0 0 0 0 0 0 0 0 0 0 0 0 0 0 0 0 0 0 0 0 0 0 0 0 0 0 0 0 0 0 0 0 0 0 0 0 0 0 0 0 0 0 0 0 0 0 0 0 0 0 0 0 0 0 0 0 0 0 0 0 0 0 0 0 0 0 0 0 0 0 0 0 0 0 0 0 0 0 0 0 0 0 0 0 0 0 0 0 0 0 0 0 0 0 0 0 0 0 0 0 0 0 0 0 0 0 0 0 0 0 0 0 0 0 0 0 0 0 0 0 0 0 0 0 0 0 0 0 0 0 0 0 0 0 0 0 0 0 0 0 0 0 0 0 0 0 0 0 0 0 0 0 0 0 0 0 0 0 0 0 0 0 0 0 0 0 0 0 0 0 0 0 0 0 0 0 0 0 0 0 0 0 0 0 0 0 0 0 0 0 0 0 0 0 0 0 0 0 0 0 0 0 0 0 0 0 0 0 0 0 0 0 0 0 0 0 0 0 0 0 0 0 0 0 0 0 0 0 0 0 0 0 0 0 0 0 0 0 0 0 0 0 0 0 0 0 0 0 0 0 0 0 0 0 0 0 0 0 0 0 0 0 0 0 0 0 0 0 0 0 0 0 0 0 0 0 0 0 0 0 0 0 0 0 0 0 0 0 0 0 0 0 0 0 0 0 0 0 0 0 0 0 0 0 0 0 0 0 0 0 0 0 0 0 0 0 0 0 0 0 0 0 0 0 0 0 0 0 0 0 0 0 0 0 0 0 0 0 0 0 0 0 0 0 0 0 0 0 0 0 0 0 0 0 0 0 0 0 0 0 0 0 0 0 0 0 0 0 0 0 0 0 0 0 0 0 0 0 0 0 0 0 0 0 0 0 0 0 0 0 0 0 0 0 0 0 0 0 0 0 0 0 0 0 0 0 0 0 0 0 0 0 0 0 0 0 0 0 0 0 0 0 0 0 0 0 0 0 0 0 0 0 0 0 0 0 0 0 0 0 0 0 0 0 0 0 0 0 0 0 0 0 0 0 0 0 0 0 0 0 0 0 0 0 0 0 0 0 0 0 0 0 0 0 0 0 0 0 0 0 0 0 0 0 0 0 0 0 0 0 0 0 0 0 0 0 0 0 0 0 0 0 0 0 0 0 0 0 0 0 0 0 0 0 0 0 0 0 0 0 0 0 0 0 0 0 0 0 0 0 0 0 0 0 0 0 0 0 0 0 0 0 0 0 0 0 0 0 0 0 0 0 0 0 0 0 0 0 0 0 0 0 0 0 0 0 0 0 0 0 0 0 0 0 0 0 0 0 0 0 0 0 0 0 0 0 0 0 0 0 0 0 0 0 0 0 0 0 0 0 0 0 0 0 0 0 0 0 0 0 0 0 0 0 0 0 0 0 0 0 0 0 0 0 0 0 0 0 0 0 0 0 0 0 0 0 0 0 0 0 0 0 0 0 0 0 0 0 0 0 0 0 0 0 0 0 0 0 0 0 0 0 0 0 0 0 0 0 0 0 0 0 0 0 0 0 0 0 0 0 0 0 0 0 0 0 0 0 0 0 0 0 0 0 0 0 0 0 0 0 0 0 0 0 0 0 0 0 0 0 0 0 0 0 0 0 0 0 0 0 0 0 0 0 0 0 0 0 0 0 0 0 0 0 0 0 0 0 0 0 0 0 0 0 0 0 0 0 0 0 0 0 0 0 0 0 0 0 0 0 0 0 0 0 0 0 0 0 0 0 0 0 0 0 0 0 0 0 0 0 0 0 0 0 0 0 0 0 0 0 0 0 0 0 0 0 0 0 0 0 0 0 0 0 0 0 0 0 0 0 0 0 0 0 0 0 0 0 0 0 0 0 0 0 0 0 0 0 0 0 0 0 0 0 0 0 0 0 0 0 0 0 0 0 0 0 0 0 0 0 0 0 0 0 0 0 0 0 0 0 0 0 0 0 0 0 0 0 0 0 0 0 0 0 0 0 0 0 0 0 0 0 0 0 0 0 0 0 0 0 0 0 0 0 0 0 0 0 0 0 0 0 0 0 0 0 0 0 0 0 0 0 0 0 0 0 0 0 0 0 0 0 0 0 0 0 0 0 0 0 0 0 0 0 0 0 0 
            </DataArray>
            <DataArray type="Float64" Name="Forces" NumberOfComponents="3" format="ascii">
               0.0003125 -0 0  0.0003125 -0 0  0.0003125 -0 0  0.0003125 -0 0  0.0003125 -0 0  0.0003125 -0 0  0.0003125 -0 0  0.0003125 -0 0  0.0003125 -0 0  0.0003125 -0 0  0.0003125 -0 0  0.0003125 -0 0  0.0003125 -0 0  0.0003125 -0 0  0.0003125 -0 0  0.0003125 -0 0  0.0003125 -0 0  0.0003125 -0 0  0.0003125 -0 0  0.0003125 -0 0  0.0003125 -0 0  0.0003125 -0 0  0.0003125 -0 0  0.0003125 -0 0  0.0003125 -0 0  0.0003125 -0 0  0.0003125 -0 0  0.0003125 -0 0  0.0003125 -0 0  0.0003125 -0 0  0.0003125 -0 0  0.0003125 -0 0  0.0003125 -0 0  0.0003125 -0 0  0.0003125 -0 0  0.0003125 -0 0  0.0003125 -0 0  0.0003125 -0 0  0.0003125 -0 0  0.0003125 -0 0  0.0003125 -0 0  0.0003125 -0 0  0.0003125 -0 0  0.0003125 -0 0  0.0003125 -0 0  0.0003125 -0 0  0.0003125 -0 0  0.0003125 -0 0  0.0003125 -0 0  0.0003125 -0 0  0.0003125 -0 0  0.0003125 -0 0  0.0003125 -0 0  0.0003125 -0 0  0.0003125 -0 0  0.0003125 -0 0  0.0003125 -0 0  0.0003125 -0 0  0.0003125 -0 0  0.0003125 -0 0  0.0003125 -0 0  0.0003125 -0 0  0.0003125 -0 0  0.0003125 -0 0  0.0003125 -0 0  0.0003125 -0 0  0.0003125 -0 0  0.0003125 -0 0  0.0003125 -0 0  0.0003125 -0 0  0.0003125 -0 0  0.0003125 -0 0  0.0003125 -0 0  0.0003125 -0 0  0.0003125 -0 0  0.0003125 -0 0  0.0003125 -0 0  0.0003125 -0 0  0.0003125 -0 0  0.0003125 -0 0  0.0003125 -0 0  0.0003125 -0 0  0.0003125 -0 0  0.0003125 -0 0  0.0003125 -0 0  0.0003125 -0 0  0.0003125 -0 0  0.0003125 -0 0  0.0003125 -0 0  0.0003125 -0 0  0.0003125 -0 0  0.0003125 -0 0  0.0003125 -0 0  0.0003125 -0 0  0.0003125 -0 0  0.0003125 -0 0  0.0003125 -0 0  0.0003125 -0 0  0.0003125 -0 0  0.0003125 -0 0  0.0003125 -0 0  0.0003125 -0 0  0.0003125 -0 0  0.0003125 -0 0  0.0003125 -0 0  0.0003125 -0 0  0.0003125 -0 0  0.0003125 -0 0  0.0003125 -0 0  0.0003125 -0 0  0.0003125 -0 0  0.0003125 -0 0  0.0003125 -0 0  0.0003125 -0 0  0.0003125 -0 0  0.0003125 -0 0  0.0003125 -0 0  0.0003125 -0 0  0.0003125 -0 0  0.0003125 -0 0  0.0003125 -0 0  0.0003125 -0 0  0.0003125 -0 0  0.0003125 -0 0  0.0003125 -0 0  0.0003125 -0 0  0.0003125 -0 0  0.0003125 -0 0  0.0003125 -0 0  0.0003125 -0 0  0.0003125 -0 0  0.0003125 -0 0  0.0003125 -0 0  0.0003125 -0 0  0.0003125 -0 0  0.0003125 -0 0  0.0003125 -0 0  0.0003125 -0 0  0.0003125 -0 0  0.0003125 -0 0  0.0003125 -0 0  0.0003125 -0 0  0.0003125 -0 0  0.0003125 -0 0  0.0003125 -0 0  0.0003125 -0 0  0.0003125 -0 0  0.0003125 -0 0  0.0003125 -0 0  0.0003125 -0 0  0.0003125 -0 0  0.0003125 -0 0  0.0003125 -0 0  0.0003125 -0 0  0.0003125 -0 0  0.0003125 -0 0  0.0003125 -0 0  0.0003125 -0 0  0.0003125 -0 0  0.0003125 -0 0  0.0003125 -0 0  0.0003125 -0 0  0.0003125 -0 0  0.0003125 -0 0  0.0003125 -0 0  0.0003125 -0 0  0.0003125 -0 0  0.0003125 -0 0  0.0003125 -0 0  0.0003125 -0 0  0.0003125 -0 0  0.0003125 -0 0  0.0003125 -0 0  0.0003125 -0 0  0.0003125 -0 0  0.0003125 -0 0  0.0003125 -0 0  0.0003125 -0 0  0.0003125 -0 0  0.0003125 -0 0  0.0003125 -0 0  0.0003125 -0 0  0.0003125 -0 0  0.0003125 -0 0  0.0003125 -0 0  0.0003125 -0 0  0.0003125 -0 0  0.0003125 -0 0  0.0003125 -0 0  0.0003125 -0 0  0.0003125 -0 0  0.0003125 -0 0  0.0003125 -0 0  0.0003125 -0 0  0.0003125 -0 0  0.0003125 -0 0  0.0003125 -0 0  0.0003125 -0 0  0.0003125 -0 0  0.0003125 -0 0  0.0003125 -0 0  0.0003125 -0 0  0.0003125 -0 0  0.0003125 -0 0  0.0003125 -0 0  0.0003125 -0 0  0.0003125 -0 0  0.0003125 -0 0  0.0003125 -0 0  0.0003125 -0 0  0.0003125 -0 0  0.0003125 -0 0  0.0003125 -0 0  0.0003125 -0 0  0.0003125 -0 0  0.0003125 -0 0  0.0003125 -0 0  0.0003125 -0 0  0.0003125 -0 0  0.0003125 -0 0  0.0003125 -0 0  0.0003125 -0 0  0.0003125 -0 0  0.0003125 -0 0  0.0003125 -0 0  0.0003125 -0 0  0.0003125 -0 0  0.0003125 -0 0  0.0003125 -0 0  0.0003125 -0 0  0.0003125 -0 0  0.0003125 -0 0  0.0003125 -0 0  0.0003125 -0 0  0.0003125 -0 0  0.0003125 -0 0  0.0003125 -0 0  0.0003125 -0 0  0.0003125 -0 0  0.0003125 -0 0  0.0003125 -0 0  0.0003125 -0 0  0.0003125 -0 0  0.0003125 -0 0  0.0003125 -0 0  0.0003125 -0 0  0.0003125 -0 0  0.0003125 -0 0  0.0003125 -0 0  0.0003125 -0 0  0.0003125 -0 0  0.0003125 -0 0  0.0003125 -0 0  0.0003125 -0 0  0.0003125 -0 0  0.0003125 -0 0  0.0003125 -0 0  0.0003125 -0 0  0.0003125 -0 0  0.0003125 -0 0  0.0003125 -0 0  0.0003125 -0 0  0.0003125 -0 0  0.0003125 -0 0  0.0003125 -0 0  0.0003125 -0 0  0.0003125 -0 0  0.0003125 -0 0  0.0003125 -0 0  0.0003125 -0 0  0.0003125 -0 0  0.0003125 -0 0  0.0003125 -0 0  0.0003125 -0 0  0.0003125 -0 0  0.0003125 -0 0  0.0003125 -0 0  0.0003125 -0 0  0.0003125 -0 0  0.0003125 -0 0  0.0003125 -0 0  0.0003125 -0 0  0.0003125 -0 0  0.0003125 -0 0  0.0003125 -0 0  0.0003125 -0 0  0.0003125 -0 0  0.0003125 -0 0  0.0003125 -0 0  0.0003125 -0 0  0.0003125 -0 0  0.0003125 -0 0  0.0003125 -0 0  0.0003125 -0 0  0.0003125 -0 0  0.0003125 -0 0  0.0003125 -0 0  0.0003125 -0 0  0.0003125 -0 0  0.0003125 -0 0  0.0003125 -0 0  0.0003125 -0 0  0.0003125 -0 0  0.0003125 -0 0  0.0003125 -0 0  0.0003125 -0 0  0.0003125 -0 0  0.0003125 -0 0  0.0003125 -0 0  0.0003125 -0 0  0.0003125 -0 0  0.0003125 -0 0  0.0003125 -0 0  0.0003125 -0 0  0.0003125 -0 0  0.0003125 -0 0  0.0003125 -0 0  0.0003125 -0 0  0.0003125 -0 0  0.0003125 -0 0  0.0003125 -0 0  0.0003125 -0 0  0.0003125 -0 0  0.0003125 -0 0  0.0003125 -0 0  0.0003125 -0 0  0.0003125 -0 0  0.0003125 -0 0  0.0003125 -0 0  0.0003125 -0 0  0.0003125 -0 0  0.0003125 -0 0  0.0003125 -0 0  0.0003125 -0 0  0.0003125 -0 0  0.0003125 -0 0  0.0003125 -0 0  0.0003125 -0 0  0.0003125 -0 0  0.0003125 -0 0  0.0003125 -0 0  0.0003125 -0 0  0.0003125 -0 0  0.0003125 -0 0  0.0003125 -0 0  0.0003125 -0 0  0.0003125 -0 0  0.0003125 -0 0  0.0003125 -0 0  0.0003125 -0 0  0.0003125 -0 0  0.0003125 -0 0  0.0003125 -0 0  0.0003125 -0 0  0.0003125 -0 0  0.0003125 -0 0  0.0003125 -0 0  0.0003125 -0 0  0.0003125 -0 0  0.0003125 -0 0  0.0003125 -0 0  0.0003125 -0 0  0.0003125 -0 0  0.0003125 -0 0  0.0003125 -0 0  0.0003125 -0 0  0.0003125 -0 0  0.0003125 -0 0  0.0003125 -0 0  0.0003125 -0 0  0.0003125 -0 0  0.0003125 -0 0  0.0003125 -0 0  0.0003125 -0 0  0.0003125 -0 0  0.0003125 -0 0  0.0003125 -0 0  0.0003125 -0 0  0.0003125 -0 0  0.0003125 -0 0  0.0003125 -0 0  0.0003125 -0 0  0.0003125 -0 0  0.0003125 -0 0  0.0003125 -0 0  0.0003125 -0 0  0.0003125 -0 0  0.0003125 -0 0  0.0003125 -0 0  0.0003125 -0 0  0.0003125 -0 0  0.0003125 -0 0  0.0003125 -0 0  0.0003125 -0 0  0.0003125 -0 0  0.0003125 -0 0  0.0003125 -0 0  0.0003125 -0 0  0.0003125 -0 0  0.0003125 -0 0  0.0003125 -0 0  0.0003125 -0 0  0.0003125 -0 0  0.0003125 -0 0  0.0003125 -0 0  0.0003125 -0 0  0.0003125 -0 0  0.0003125 -0 0  0.0003125 -0 0  0.0003125 -0 0  0.0003125 -0 0  0.0003125 -0 0  0.0003125 -0 0  0.0003125 -0 0  0.0003125 -0 0  0.0003125 -0 0  0.0003125 -0 0  0.0003125 -0 0  0.0003125 -0 0  0.0003125 -0 0  0.0003125 -0 0  0.0003125 -0 0  0.0003125 -0 0  0.0003125 -0 0  0.0003125 -0 0  0.0003125 -0 0  0.0003125 -0 0  0.0003125 -0 0  0.0003125 -0 0  0.0003125 -0 0  0.0003125 -0 0  0.0003125 -0 0  0.0003125 -0 0  0.0003125 -0 0  0.0003125 -0 0  0.0003125 -0 0  0.0003125 -0 0  0.0003125 -0 0  0.0003125 -0 0  0.0003125 -0 0  0.0003125 -0 0  0.0003125 -0 0  0.0003125 -0 0  0.0003125 -0 0  0.0003125 -0 0  0.0003125 -0 0  0.0003125 -0 0  0.0003125 -0 0  0.0003125 -0 0  0.0003125 -0 0  0.0003125 -0 0  0.0003125 -0 0  0.0003125 -0 0  0.0003125 -0 0  0.0003125 -0 0  0.0003125 -0 0  0.0003125 -0 0  0.0003125 -0 0  0.0003125 -0 0  0.0003125 -0 0  0.0003125 -0 0  0.0003125 -0 0  0.0003125 -0 0  0.0003125 -0 0  0.0003125 -0 0  0.0003125 -0 0  0.0003125 -0 0  0.0003125 -0 0  0.0003125 -0 0  0.0003125 -0 0  0.0003125 -0 0  0.0003125 -0 0  0.0003125 -0 0  0.0003125 -0 0  0.0003125 -0 0  0.0003125 -0 0  0.0003125 -0 0  0.0003125 -0 0  0.0003125 -0 0  0.0003125 -0 0  0.0003125 -0 0  0.0003125 -0 0  0.0003125 -0 0  0.0003125 -0 0  0.0003125 -0 0  0.0003125 -0 0  0.0003125 -0 0  0.0003125 -0 0  0.0003125 -0 0  0.0003125 -0 0  0.0003125 -0 0  0.0003125 -0 0  0.0003125 -0 0  0.0003125 -0 0  0.0003125 -0 0  0.0003125 -0 0  0.0003125 -0 0  0.0003125 -0 0  0.0003125 -0 0  0.0003125 -0 0  0.0003125 -0 0  0.0003125 -0 0  0.0003125 -0 0  0.0003125 -0 0  0.0003125 -0 0  0.0003125 -0 0  0.0003125 -0 0  0.0003125 -0 0  0.0003125 -0 0  0.0003125 -0 0  0.0003125 -0 0  0.0003125 -0 0  0.0003125 -0 0  0.0003125 -0 0  0.0003125 -0 0  0.0003125 -0 0  0.0003125 -0 0  0.0003125 -0 0  0.0003125 -0 0  0.0003125 -0 0  0.0003125 -0 0  0.0003125 -0 0  0.0003125 -0 0  0.0003125 -0 0  0.0003125 -0 0  0.0003125 -0 0  0.0003125 -0 0  0.0003125 -0 0  0.0003125 -0 0  0.0003125 -0 0  0.0003125 -0 0  0.0003125 -0 0  0.0003125 -0 0  0.0003125 -0 0  0.0003125 -0 0  0.0003125 -0 0  0.0003125 -0 0  0.0003125 -0 0  0.0003125 -0 0  0.0003125 -0 0  0.0003125 -0 0  0.0003125 -0 0  0.0003125 -0 0  0.0003125 -0 0  0.0003125 -0 0  0.0003125 -0 0  0.0003125 -0 0  0.0003125 -0 0  0.0003125 -0 0  0.0003125 -0 0  0.0003125 -0 0  0.0003125 -0 0  0.0003125 -0 0  0.0003125 -0 0  0.0003125 -0 0  0.0003125 -0 0  0.0003125 -0 0  0.0003125 -0 0  0.0003125 -0 0  0.0003125 -0 0  0.0003125 -0 0  0.0003125 -0 0  0.0003125 -0 0  0.0003125 -0 0  0.0003125 -0 0  0.0003125 -0 0  0.0003125 -0 0  0.0003125 -0 0  0.0003125 -0 0  0.0003125 -0 0  0.0003125 -0 0  0.0003125 -0 0  0.0003125 -0 0  0.0003125 -0 0  0.0003125 -0 0  0.0003125 -0 0  0.0003125 -0 0  0.0003125 -0 0  0.0003125 -0 0  0.0003125 -0 0  0.0003125 -0 0  0.0003125 -0 0  0.0003125 -0 0  0.0003125 -0 0  0.0003125 -0 0  0.0003125 -0 0  0.0003125 -0 0  0.0003125 -0 0  0.0003125 -0 0  0.0003125 -0 0  0.0003125 -0 0  0.0003125 -0 0  0.0003125 -0 0  0.0003125 -0 0  0.0003125 -0 0  0.0003125 -0 0  0.0003125 -0 0  0.0003125 -0 0  0.0003125 -0 0  0.0003125 -0 0  0.0003125 -0 0  0.0003125 -0 0  0.0003125 -0 0  0.0003125 -0 0  0.0003125 -0 0  0.0003125 -0 0  0.0003125 -0 0  0.0003125 -0 0  0.0003125 -0 0  0.0003125 -0 0  0.0003125 -0 0  0.0003125 -0 0  0.0003125 -0 0  0.0003125 -0 0  0.0003125 -0 0  0.0003125 -0 0  0.0003125 -0 0  0.0003125 -0 0  0.0003125 -0 0  0.0003125 -0 0  0.0003125 -0 0  0.0003125 -0 0  0.0003125 -0 0  0.0003125 -0 0  0.0003125 -0 0  0.0003125 -0 0  0.0003125 -0 0  0.0003125 -0 0  0.0003125 -0 0  0.0003125 -0 0  0.0003125 -0 0  0.0003125 -0 0  0.0003125 -0 0  0.0003125 -0 0  0.0003125 -0 0  0.0003125 -0 0  0.0003125 -0 0  0.0003125 -0 0  0.0003125 -0 0  0.0003125 -0 0  0.0003125 -0 0  0.0003125 -0 0  0.0003125 -0 0  0.0003125 -0 0  0.0003125 -0 0  0.0003125 -0 0  0.0003125 -0 0  0.0003125 -0 0  0.0003125 -0 0  0.0003125 -0 0  0.0003125 -0 0  0.0003125 -0 0  0.0003125 -0 0  0.0003125 -0 0  0.0003125 -0 0  0.0003125 -0 0  0.0003125 -0 0  0.0003125 -0 0  0.0003125 -0 0  0.0003125 -0 0  0.0003125 -0 0  0.0003125 -0 0  0.0003125 -0 0  0.0003125 -0 0  0.0003125 -0 0  0.0003125 -0 0  0.0003125 -0 0  0.0003125 -0 0  0.0003125 -0 0  0.0003125 -0 0  0.0003125 -0 0  0.0003125 -0 0  0.0003125 -0 0  0.0003125 -0 0  0.0003125 -0 0  0.0003125 -0 0  0.0003125 -0 0  0.0003125 -0 0  0.0003125 -0 0  0.0003125 -0 0  0.0003125 -0 0  0.0003125 -0 0  0.0003125 -0 0  0.0003125 -0 0  0.0003125 -0 0  0.0003125 -0 0  0.0003125 -0 0  0.0003125 -0 0  0.0003125 -0 0  0.0003125 -0 0  0.0003125 -0 0  0.0003125 -0 0  0.0003125 -0 0  0.0003125 -0 0  0.0003125 -0 0  0.0003125 -0 0  0.0003125 -0 0  0.0003125 -0 0  0.0003125 -0 0  0.0003125 -0 0  0.0003125 -0 0  0.0003125 -0 0  0.0003125 -0 0  0.0003125 -0 0  0.0003125 -0 0  0.0003125 -0 0  0.0003125 -0 0  0.0003125 -0 0  0.0003125 -0 0  0.0003125 -0 0  0.0003125 -0 0  0.0003125 -0 0  0.0003125 -0 0  0.0003125 -0 0  0.0003125 -0 0  0.0003125 -0 0  0.0003125 -0 0  0.0003125 -0 0  0.0003125 -0 0  0.0003125 -0 0