<?xml version="1.0"?>
<VTKFile type="UnstructuredGrid" version="0.1" byte_order="LittleEndian">
   <UnstructuredGrid>
      <Piece NumberOfPoints="1024" NumberOfCells="4867" > 
         <Points> 
            <DataArray type="Float64" Name="Position" NumberOfComponents="3" format="ascii"> 
               0.015625  0  0.015625  
               0.015625  0  0.046875  
               0.015625  0  0.078125  
               0.015625  0  0.109375  
               0.015625  0  0.140625  
               0.015625  0  0.171875  
               0.015625  0  0.203125  
               0.015625  0  0.234375  
               0.015625  0  0.265625  
               0.015625  0  0.296875  
               0.015625  0  0.328125  
               0.015625  0  0.359375  
               0.015625  0  0.390625  
               0.015625  0  0.421875  
               0.015625  0  0.453125  
               0.015625  0  0.484375  
               0.015625  0  0.515625  
               0.015625  0  0.546875  
               0.015625  0  0.578125  
               0.015625  0  0.609375  
               0.015625  0  0.640625  
               0.015625  0  0.671875  
               0.015625  0  0.703125  
               0.015625  0  0.734375  
               0.015625  0  0.765625  
               0.015625  0  0.796875  
               0.015625  0  0.828125  
               0.015625  0  0.859375  
               0.015625  0  0.890625  
               0.015625  0  0.921875  
               0.015625  0  0.953125  
               0.015625  0  0.984375  
               0.046875  0  0.015625  
               0.046875  0  0.046875  
               0.046875  0  0.078125  
               0.046875  0  0.109375  
               0.046875  0  0.140625  
               0.046875  0  0.171875  
               0.046875  0  0.203125  
               0.046875  0  0.234375  
               0.046875  0  0.265625  
               0.046875  0  0.296875  
               0.046875  0  0.328125  
               0.046875  0  0.359375  
               0.046875  0  0.390625  
               0.046875  0  0.421875  
               0.046875  0  0.453125  
               0.046875  0  0.484375  
               0.046875  0  0.515625  
               0.046875  0  0.546875  
               0.046875  0  0.578125  
               0.046875  0  0.609375  
               0.046875  0  0.640625  
               0.046875  0  0.671875  
               0.046875  0  0.703125  
               0.046875  0  0.734375  
               0.046875  0  0.765625  
               0.046875  0  0.796875  
               0.046875  0  0.828125  
               0.046875  0  0.859375  
               0.046875  0  0.890625  
               0.046875  0  0.921875  
               0.046875  0  0.953125  
               0.046875  0  0.984375  
               0.078125  0  0.015625  
               0.078125  0  0.046875  
               0.078125  0  0.078125  
               0.078125  0  0.109375  
               0.078125  0  0.140625  
               0.078125  0  0.171875  
               0.078125  0  0.203125  
               0.078125  0  0.234375  
               0.078125  0  0.265625  
               0.078125  0  0.296875  
               0.078125  0  0.328125  
               0.078125  0  0.359375  
               0.078125  0  0.390625  
               0.078125  0  0.421875  
               0.078125  0  0.453125  
               0.078125  0  0.484375  
               0.078125  0  0.515625  
               0.078125  0  0.546875  
               0.078125  0  0.578125  
               0.078125  0  0.609375  
               0.078125  0  0.640625  
               0.078125  0  0.671875  
               0.078125  0  0.703125  
               0.078125  0  0.734375  
               0.078125  0  0.765625  
               0.078125  0  0.796875  
               0.078125  0  0.828125  
               0.078125  0  0.859375  
               0.078125  0  0.890625  
               0.078125  0  0.921875  
               0.078125  0  0.953125  
               0.078125  0  0.984375  
               0.109375  0  0.015625  
               0.109375  0  0.046875  
               0.109375  0  0.078125  
               0.109375  0  0.109375  
               0.109375  0  0.140625  
               0.109375  0  0.171875  
               0.109375  0  0.203125  
               0.109375  0  0.234375  
               0.109375  0  0.265625  
               0.109375  0  0.296875  
               0.109375  0  0.328125  
               0.109375  0  0.359375  
               0.109375  0  0.390625  
               0.109375  0  0.421875  
               0.109375  0  0.453125  
               0.109375  0  0.484375  
               0.109375  0  0.515625  
               0.109375  0  0.546875  
               0.109375  0  0.578125  
               0.109375  0  0.609375  
               0.109375  0  0.640625  
               0.109375  0  0.671875  
               0.109375  0  0.703125  
               0.109375  0  0.734375  
               0.109375  0  0.765625  
               0.109375  0  0.796875  
               0.109375  0  0.828125  
               0.109375  0  0.859375  
               0.109375  0  0.890625  
               0.109375  0  0.921875  
               0.109375  0  0.953125  
               0.109375  0  0.984375  
               0.140625  0  0.015625  
               0.140625  0  0.046875  
               0.140625  0  0.078125  
               0.140625  0  0.109375  
               0.140625  0  0.140625  
               0.140625  0  0.171875  
               0.140625  0  0.203125  
               0.140625  0  0.234375  
               0.140625  0  0.265625  
               0.140625  0  0.296875  
               0.140625  0  0.328125  
               0.140625  0  0.359375  
               0.140625  0  0.390625  
               0.140625  0  0.421875  
               0.140625  0  0.453125  
               0.140625  0  0.484375  
               0.140625  0  0.515625  
               0.140625  0  0.546875  
               0.140625  0  0.578125  
               0.140625  0  0.609375  
               0.140625  0  0.640625  
               0.140625  0  0.671875  
               0.140625  0  0.703125  
               0.140625  0  0.734375  
               0.140625  0  0.765625  
               0.140625  0  0.796875  
               0.140625  0  0.828125  
               0.140625  0  0.859375  
               0.140625  0  0.890625  
               0.140625  0  0.921875  
               0.140625  0  0.953125  
               0.140625  0  0.984375  
               0.171875  0  0.015625  
               0.171875  0  0.046875  
               0.171875  0  0.078125  
               0.171875  0  0.109375  
               0.171875  0  0.140625  
               0.171875  0  0.171875  
               0.171875  0  0.203125  
               0.171875  0  0.234375  
               0.171875  0  0.265625  
               0.171875  0  0.296875  
               0.171875  0  0.328125  
               0.171875  0  0.359375  
               0.171875  0  0.390625  
               0.171875  0  0.421875  
               0.171875  0  0.453125  
               0.171875  0  0.484375  
               0.171875  0  0.515625  
               0.171875  0  0.546875  
               0.171875  0  0.578125  
               0.171875  0  0.609375  
               0.171875  0  0.640625  
               0.171875  0  0.671875  
               0.171875  0  0.703125  
               0.171875  0  0.734375  
               0.171875  0  0.765625  
               0.171875  0  0.796875  
               0.171875  0  0.828125  
               0.171875  0  0.859375  
               0.171875  0  0.890625  
               0.171875  0  0.921875  
               0.171875  0  0.953125  
               0.171875  0  0.984375  
               0.203125  0  0.015625  
               0.203125  0  0.046875  
               0.203125  0  0.078125  
               0.203125  0  0.109375  
               0.203125  0  0.140625  
               0.203125  0  0.171875  
               0.203125  0  0.203125  
               0.203125  0  0.234375  
               0.203125  0  0.265625  
               0.203125  0  0.296875  
               0.203125  0  0.328125  
               0.203125  0  0.359375  
               0.203125  0  0.390625  
               0.203125  0  0.421875  
               0.203125  0  0.453125  
               0.203125  0  0.484375  
               0.203125  0  0.515625  
               0.203125  0  0.546875  
               0.203125  0  0.578125  
               0.203125  0  0.609375  
               0.203125  0  0.640625  
               0.203125  0  0.671875  
               0.203125  0  0.703125  
               0.203125  0  0.734375  
               0.203125  0  0.765625  
               0.203125  0  0.796875  
               0.203125  0  0.828125  
               0.203125  0  0.859375  
               0.203125  0  0.890625  
               0.203125  0  0.921875  
               0.203125  0  0.953125  
               0.203125  0  0.984375  
               0.234375  0  0.015625  
               0.234375  0  0.046875  
               0.234375  0  0.078125  
               0.234375  0  0.109375  
               0.234375  0  0.140625  
               0.234375  0  0.171875  
               0.234375  0  0.203125  
               0.234375  0  0.234375  
               0.234375  0  0.265625  
               0.234375  0  0.296875  
               0.234375  0  0.328125  
               0.234375  0  0.359375  
               0.234375  0  0.390625  
               0.234375  0  0.421875  
               0.234375  0  0.453125  
               0.234375  0  0.484375  
               0.234375  0  0.515625  
               0.234375  0  0.546875  
               0.234375  0  0.578125  
               0.234375  0  0.609375  
               0.234375  0  0.640625  
               0.234375  0  0.671875  
               0.234375  0  0.703125  
               0.234375  0  0.734375  
[...]
         <PointData Scalars="Rank " Vectors="Forces ">
            <DataArray type="UInt32" Name="Rank" NumberOfComponents="1" format="ascii">
               0 0 0 0 0 0 0 0 0 0 0 0 0 0 0 0 0 0 0 0 0 0 0 0 0 0 0 0 0 0 0 0 0 0 0 0 0 0 0 0 0 0 0 0 0 0 0 0 0 0 0 0 0 0 0 0 0 0 0 0 0 0 0 0 0 0 0 0 0 0 0 0 0 0 0 0 0 0 0 0 0 0 0 0 0 0 0 0 0 0 0 0 0 0 0 0 0 0 0 0 0 0 0 0 0 0 0 0 0 0 0 0 0 0 0 0 0 0 0 0 0 0 0 0 0 0 0 0 0 0 0 0 0 0 0 0 0 0 0 0 0 0 0 0 0 0 0 0 0 0 0 0 0 0 0 0 0 0 0 0 0 0 0 0 0 0 0 0 0 0 0 0 0 0 0 0 0 0 0 0 0 0 0 0 0 0 0 0 0 0 0 0 0 0 0 0 0 0 0 0 0 0 0 0 0 0 0 0 0 0 0 0 0 0 0 0 0 0 0 0 0 0 0 0 0 0 0 0 0 0 0 0 0 0 0 0 0 0 0 0 0 0 0 0 0 0 0 0 0 0 0 0 0 0 0 0 0 0 0 0 0 0 0 0 0 0 0 0 0 0 0 0 0 0 0 0 0 0 0 0 0 0 0 0 0 0 0 0 0 0 0 0 0 0 0 0 0 0 0 0 0 0 0 0 0 0 0 0 0 0 0 0 0 0 0 0 0 0 0 0 0 0 0 0 0 0 0 0 0 0 0 0 0 0 0 0 0 0 0 0 0 0 0 0 0 0 0 0 0 0 0 0 0 0 0 0 0 0 0 0 0 0 0 0 0 0 0 0 0 0 0 0 0 0 0 0 0 0 0 0 0 0 0 0 0 0 0 0 0 0 0 0 0 0 0 0 0 0 0 0 0 0 0 0 0 0 0 0 0 0 0 0 0 0 0 0 0 0 0 0 0 0 0 0 0 0 0 0 0 0 0 0 0 0 0 0 0 0 0 0 0 0 0 0 0 0 0 0 0 0 0 0 0 0 0 0 0 0 0 0 0 0 0 0 0 0 0 0 0 0 0 0 0 0 0 0 0 0 0 0 0 0 0 0 0 0 0 0 0 0 0 0 0 0 0 0 0 0 0 0 0 0 0 0 0 0 0 0 0 0 0 0 0 0 0 0 0 0 0 0 0 0 0 0 0 0 0 0 0 0 0 0 0 0 0 0 0 0 0 0 0 0 0 0 0 0 0 0 0 0 0 0 0 0 0 0 0 0 0 0 0 0 0 0 0 0 0 0 0 0 0 0 0 0 0 0 0 0 0 0 0 0 0 0 0 0 0 0 0 0 0 0 0 0 0 0 0 0 0 0 0 0 0 0 0 0 0 0 0 0 0 0 0 0 0 0 0 0 0 0 0 0 0 0 0 0 0 0 0 0 0 0 0 0 0 0 0 0 0 0 0 0 0 0 0 0 0 0 0 0 0 0 0 0 0 0 0 0 0 0 0 0 0 0 0 0 0 0 0 0 0 0 0 0 0 0 0 0 0 0 0 0 0 0 0 0 0 0 0 0 0 0 0 0 0 0 0 0 0 0 0 0 0 0 0 0 0 0 0 0 0 0 0 0 0 0 0 0 0 0 0 0 0 0 0 0 0 0 0 0 0 0 0 0 0 0 0 0 0 0 0 0 0 0 0 0 0 0 0 0 0 0 0 0 0 0 0 0 0 0 0 0 0 0 0 0 0 0 0 0 0 0 0 0 0 0 0 0 0 0 0 0 0 0 0 0 0 0 0 0 0 0 0 0 0 0 0 0 0 0 0 0 0 0 0 0 0 0 0 0 0 0 0 0 0 0 0 0 0 0 0 0 0 0 0 0 0 0 0 0 0 0 0 0 0 0 0 0 0 0 0 0 0 0 0 0 0 0 0 0 0 0 0 0 0 0 0 0 0 0 0 0 0 0 0 0 0 0 0 0 0 0 0 0 0 0 0 0 0 0 0 0 0 0 0 0 0 0 0 0 0 0 0 0 0 0 0 0 0 0 0 0 0 0 0 0 0 0 0 0 0 0 0 0 0 0 0 0 0 0 0 0 0 0 0 0 0 0 0 0 0 0 0 0 0 0 0 0 0 0 0 0 0 0 0 0 0 0 0 0 0 0 0 0 0 0 0 0 0 0 0 0 0 0 0 0 0 0 0 0 0 0 0 0 0 0 0 0 0 0 0 0 0 0 0 0 0 0 0 0 0 0 0 0 0 0 0 0 0 0 0 0 0 0 0 0 0 0 0 0 0 0 0 0 0 0 0 0 0 0 0 0 0 0 
            </DataArray>
            <DataArray type="Float64" Name="Forces" NumberOfComponents="3" format="ascii">
               0.000625 -0 0  0.000625 -0 0  0.000625 -0 0  0.000625 -0 0  0.000625 -0 0  0.000625 -0 0  0.000625 -0 0  0.000625 -0 0  0.000625 -0 0  0.000625 -0 0  0.000625 -0 0  0.000625 -0 0  0.000625 -0 0  0.000625 -0 0  0.000625 -0 0  0.000625 -0 0  0.000625 -0 0  0.000625 -0 0  0.000625 -0 0  0.000625 -0 0  0.000625 -0 0  0.000625 -0 0  0.000625 -0 0  0.000625 -0 0  0.000625 -0 0  0.000625 -0 0  0.000625 -0 0  0.000625 -0 0  0.000625 -0 0  0.000625 -0 0  0.000625 -0 0  0.000625 -0 0  0.000625 -0 0  0.000625 -0 0  0.000625 -0 0  0.000625 -0 0  0.000625 -0 0  0.000625 -0 0  0.000625 -0 0  0.000625 -0 0  0.000625 -0 0  0.000625 -0 0  0.000625 -0 0  0.000625 -0 0  0.000625 -0 0  0.000625 -0 0  0.000625 -0 0  0.000625 -0 0  0.000625 -0 0  0.000625 -0 0  0.000625 -0 0  0.000625 -0 0  0.000625 -0 0  0.000625 -0 0  0.000625 -0 0  0.000625 -0 0  0.000625 -0 0  0.000625 -0 0  0.000625 -0 0  0.000625 -0 0  0.000625 -0 0  0.000625 -0 0  0.000625 -0 0  0.000625 -0 0  0.000625 -0 0  0.000625 -0 0  0.000625 -0 0  0.000625 -0 0  0.000625 -0 0  0.000625 -0 0  0.000625 -0 0  0.000625 -0 0  0.000625 -0 0  0.000625 -0 0  0.000625 -0 0  0.000625 -0 0  0.000625 -0 0  0.000625 -0 0  0.000625 -0 0  0.000625 -0 0  0.000625 -0 0  0.000625 -0 0  0.000625 -0 0  0.000625 -0 0  0.000625 -0 0  0.000625 -0 0  0.000625 -0 0  0.000625 -0 0  0.000625 -0 0  0.000625 -0 0  0.000625 -0 0  0.000625 -0 0  0.000625 -0 0  0.000625 -0 0  0.000625 -0 0  0.000625 -0 0  0.000625 -0 0  0.000625 -0 0  0.000625 -0 0  0.000625 -0 0  0.000625 -0 0  0.000625 -0 0  0.000625 -0 0  0.000625 -0 0  0.000625 -0 0  0.000625 -0 0  0.000625 -0 0  0.000625 -0 0  0.000625 -0 0  0.000625 -0 0  0.000625 -0 0  0.000625 -0 0  0.000625 -0 0  0.000625 -0 0  0.000625 -0 0  0.000625 -0 0  0.000625 -0 0  0.000625 -0 0  0.000625 -0 0  0.000625 -0 0  0.000625 -0 0  0.000625 -0 0  0.000625 -0 0  0.000625 -0 0  0.000625 -0 0  0.000625 -0 0  0.000625 -0 0  0.000625 -0 0  0.000625 -0 0  0.000625 -0 0  0.000625 -0 0  0.000625 -0 0  0.000625 -0 0  0.000625 -0 0  0.000625 -0 0  0.000625 -0 0  0.000625 -0 0  0.000625 -0 0  0.000625 -0 0  0.000625 -0 0  0.000625 -0 0  0.000625 -0 0  0.000625 -0 0  0.000625 -0 0  0.000625 -0 0  0.000625 -0 0  0.000625 -0 0  0.000625 -0 0  0.000625 -0 0  0.000625 -0 0  0.000625 -0 0  0.000625 -0 0  0.000625 -0 0  0.000625 -0 0  0.000625 -0 0  0.000625 -0 0  0.000625 -0 0  0.000625 -0 0  0.000625 -0 0  0.000625 -0 0  0.000625 -0 0  0.000625 -0 0  0.000625 -0 0  0.000625 -0 0  0.000625 -0 0  0.000625 -0 0  0.000625 -0 0  0.000625 -0 0  0.000625 -0 0  0.000625 -0 0  0.000625 -0 0  0.000625 -0 0  0.000625 -0 0  0.000625 -0 0  0.000625 -0 0  0.000625 -0 0  0.000625 -0 0  0.000625 -0 0  0.000625 -0 0  0.000625 -0 0  0.000625 -0 0  0.000625 -0 0  0.000625 -0 0  0.000625 -0 0  0.000625 -0 0  0.000625 -0 0  0.000625 -0 0  0.000625 -0 0  0.000625 -0 0  0.000625 -0 0  0.000625 -0 0  0.000625 -0 0  0.000625 -0 0  0.000625 -0 0  0.000625 -0 0  0.000625 -0 0  0.000625 -0 0  0.000625 -0 0  0.000625 -0 0  0.000625 -0 0  0.000625 -0 0  0.000625 -0 0  0.000625 -0 0  0.000625 -0 0  0.000625 -0 0  0.000625 -0 0  0.000625 -0 0  0.000625 -0 0  0.000625 -0 0  0.000625 -0 0  0.000625 -0 0  0.000625 -0 0  0.000625 -0 0  0.000625 -0 0  0.000625 -0 0  0.000625 -0 0  0.000625 -0 0  0.000625 -0 0  0.000625 -0 0  0.000625 -0 0  0.000625 -0 0  0.000625 -0 0  0.000625 -0 0  0.000625 -0 0  0.000625 -0 0  0.000625 -0 0  0.000625 -0 0  0.000625 -0 0  0.000625 -0 0  0.000625 -0 0  0.000625 -0 0  0.000625 -0 0  0.000625 -0 0  0.000625 -0 0  0.000625 -0 0  0.000625 -0 0  0.000625 -0 0  0.000625 -0 0  0.000625 -0 0  0.000625 -0 0  0.000625 -0 0  0.000625 -0 0  0.000625 -0 0  0.000625 -0 0  0.000625 -0 0  0.000625 -0 0  0.000625 -0 0  0.000625 -0 0  0.000625 -0 0  0.000625 -0 0  0.000625 -0 0  0.000625 -0 0  0.000625 -0 0  0.000625 -0 0  0.000625 -0 0  0.000625 -0 0  0.000625 -0 0  0.000625 -0 0  0.000625 -0 0  0.000625 -0 0  0.000625 -0 0  0.000625 -0 0  0.000625 -0 0  0.000625 -0 0  0.000625 -0 0  0.000625 -0 0  0.000625 -0 0  0.000625 -0 0  0.000625 -0 0  0.000625 -0 0  0.000625 -0 0  0.000625 -0 0  0.000625 -0 0  0.000625 -0 0  0.000625 -0 0  0.000625 -0 0  0.000625 -0 0  0.000625 -0 0  0.000625 -0 0  0.000625 -0 0  0.000625 -0 0  0.000625 -0 0  0.000625 -0 0  0.000625 -0 0  0.000625 -0 0  0.000625 -0 0  0.000625 -0 0  0.000625 -0 0  0.000625 -0 0  0.000625 -0 0  0.000625 -0 0  0.000625 -0 0  0.000625 -0 0  0.000625 -0 0  0.000625 -0 0  0.000625 -0 0  0.000625 -0 0  0.000625 -0 0  0.000625 -0 0  0.000625 -0 0  0.000625 -0 0  0.000625 -0 0  0.000625 -0 0  0.000625 -0 0  0.000625 -0 0  0.000625 -0 0  0.000625 -0 0  0.000625 -0 0  0.000625 -0 0  0.000625 -0 0  0.000625 -0 0  0.000625 -0 0  0.000625 -0 0  0.000625 -0 0  0.000625 -0 0  0.000625 -0 0  0.000625 -0 0  0.000625 -0 0  0.000625 -0 0  0.000625 -0 0  0.000625 -0 0  0.000625 -0 0  0.000625 -0 0  0.000625 -0 0  0.000625 -0 0  0.000625 -0 0  0.000625 -0 0  0.000625 -0 0  0.000625 -0 0  0.000625 -0 0  0.000625 -0 0  0.000625 -0 0  0.000625 -0 0  0.000625 -0 0  0.000625 -0 0  0.000625 -0 0  0.000625 -0 0  0.000625 -0 0  0.000625 -0 0  0.000625 -0 0  0.000625 -0 0  0.000625 -0 0  0.000625 -0 0  0.000625 -0 0  0.000625 -0 0  0.000625 -0 0  0.000625 -0 0  0.000625 -0 0  0.000625 -0 0  0.000625 -0 0  0.000625 -0 0  0.000625 -0 0  0.000625 -0 0  0.000625 -0 0  0.000625 -0 0  0.000625 -0 0  0.000625 -0 0  0.000625 -0 0  0.000625 -0 0  0.000625 -0 0  0.000625 -0 0  0.000625 -0 0  0.000625 -0 0  0.000625 -0 0  0.000625 -0 0  0.000625 -0 0  0.000625 -0 0  0.000625 -0 0  0.000625 -0 0  0.000625 -0 0  0.000625 -0 0  0.000625 -0 0  0.000625 -0 0  0.000625 -0 0  0.000625 -0 0  0.000625 -0 0  0.000625 -0 0  0.000625 -0 0  0.000625 -0 0  0.000625 -0 0  0.000625 -0 0  0.000625 -0 0  0.000625 -0 0  0.000625 -0 0  0.000625 -0 0  0.000625 -0 0  0.000625 -0 0  0.000625 -0 0  0.000625 -0 0  0.000625 -0 0  0.000625 -0 0  0.000625 -0 0  0.000625 -0 0  0.000625 -0 0  0.000625 -0 0  0.000625 -0 0  0.000625 -0 0  0.000625 -0 0  0.000625 -0 0  0.000625 -0 0  0.000625 -0 0  0.000625 -0 0  0.000625 -0 0  0.000625 -0 0  0.000625 -0 0  0.000625 -0 0  0.000625 -0 0  0.000625 -0 0  0.000625 -0 0  0.000625 -0 0  0.000625 -0 0  0.000625 -0 0  0.000625 -0 0  0.000625 -0 0  0.000625 -0 0  0.000625 -0 0  0.000625 -0 0  0.000625 -0 0  0.000625 -0 0  0.000625 -0 0  0.000625 -0 0  0.000625 -0 0  0.000625 -0 0  0.000625 -0 0  0.000625 -0 0  0.000625 -0 0  0.000625 -0 0  0.000625 -0 0  0.000625 -0 0  0.000625 -0 0  0.000625 -0 0  0.000625 -0 0  0.000625 -0 0  0.000625 -0 0  0.000625 -0 0  0.000625 -0 0  0.000625 -0 0  0.000625 -0 0  0.000625 -0 0  0.000625 -0 0  0.000625 -0 0  0.000625 -0 0  0.000625 -0 0  0.000625 -0 0  0.000625 -0 0  0.000625 -0 0  0.000625 -0 0  0.000625 -0 0  0.000625 -0 0  0.000625 -0 0  0.000625 -0 0  0.000625 -0 0  0.000625 -0 0  0.000625 -0 0  0.000625 -0 0  0.000625 -0 0  0.000625 -0 0  0.000625 -0 0  0.000625 -0 0  0.000625 -0 0  0.000625 -0 0  0.000625 -0 0  0.000625 -0 0  0.000625 -0 0  0.000625 -0 0  0.000625 -0 0  0.000625 -0 0  0.000625 -0 0  0.000625 -0 0  0.000625 -0 0  0.000625 -0 0  0.000625 -0 0  0.000625 -0 0  0.000625 -0 0  0.000625 -0 0  0.000625 -0 0  0.000625 -0 0  0.000625 -0 0  0.000625 -0 0  0.000625 -0 0  0.000625 -0 0  0.000625 -0 0  0.000625 -0 0  0.000625 -0 0  0.000625 -0 0  0.000625 -0 0  0.000625 -0 0  0.000625 -0 0  0.000625 -0 0  0.000625 -0 0  0.000625 -0 0  0.000625 -0 0  0.000625 -0 0  0.000625 -0 0  0.000625 -0 0  0.000625 -0 0  0.000625 -0 0  0.000625 -0 0  0.000625 -0 0  0.000625 -0 0  0.000625 -0 0  0.000625 -0 0  0.000625 -0 0  0.000625 -0 0  0.000625 -0 0  0.000625 -0 0  0.000625 -0 0  0.000625 -0 0  0.000625 -0 0  0.000625 -0 0  0.000625 -0 0  0.000625 -0 0  0.000625 -0 0  0.000625 -0 0  0.000625 -0 0  0.000625 -0 0  0.000625 -0 0  0.000625 -0 0  0.000625 -0 0  0.000625 -0 0  0.000625 -0 0  0.000625 -0 0  0.000625 -0 0  0.000625 -0 0  0.000625 -0 0  0.000625 -0 0  0.000625 -0 0  0.000625 -0 0  0.000625 -0 0  0.000625 -0 0  0.000625 -0 0  0.000625 -0 0  0.000625 -0 0  0.000625 -0 0  0.000625 -0 0  0.000625 -0 0  0.000625 -0 0  0.000625 -0 0  0.000625 -0 0  0.000625 -0 0  0.000625 -0 0  0.000625 -0 0  0.000625 -0 0  0.000625 -0 0  0.000625 -0 0  0.000625 -0 0  0.000625 -0 0  0.000625 -0 0  0.000625 -0 0  0.000625 -0 0  0.000625 -0 0  0.000625 -0 0  0.000625 -0 0  0.000625 -0 0  0.000625 -0 0  0.000625 -0 0  0.000625 -0 0  0.000625 -0 0  0.000625 -0 0  0.000625 -0 0  0.000625 -0 0  0.000625 -0 0  0.000625 -0 0  0.000625 -0 0  0.000625 -0 0  0.000625 -0 0  0.000625 -0 0  0.000625 -0 0  0.000625 -0 0  0.000625 -0 0  0.000625 -0 0  0.000625 -0 0  0.000625 -0 0  0.000625 -0 0  0.000625 -0 0  0.000625 -0 0  0.000625 -0 0  0.000625 -0 0  0.000625 -0 0  0.000625 -0 0  0.000625 -0 0  0.000625 -0 0  0.000625 -0 0  0.000625 -0 0  0.000625 -0 0  0.000625 -0 0  0.000625 -0 0  0.000625 -0 0  0.000625 -0 0  0.000625 -0 0  0.000625 -0 0  0.000625 -0 0  0.000625 -0 0  0.000625 -0 0  0.000625 -0 0  0.000625 -0 0  0.000625 -0 0  0.000625 -0 0  0.000625 -0 0  0.000625 -0 0  0.000625 -0 0  0.000625 -0 0  0.000625 -0 0  0.000625 -0 0  0.000625 -0 0  0.000625 -0 0  0.000625 -0 0  0.000625 -0 0  0.000625 -0 0  0.000625 -0 0  0.000625 -0 0  0.000625 -0 0  0.000625 -0 0  0.000625 -0 0  0.000625 -0 0  0.000625 -0 0  0.000625 -0 0  0.000625 -0 0  0.000625 -0 0  0.000625 -0 0  0.000625 -0 0  0.000625 -0 0  0.000625 -0 0  0.000625 -0 0  0.000625 -0 0  0.000625 -0 0  0.000625 -0 0  0.000625 -0 0  0.000625 -0 0  0.000625 -0 0  0.000625 -0 0  0.000625 -0 0  0.000625 -0 0  0.000625 -0 0  0.000625 -0 0  0.000625 -0 0  0.000625 -0 0  0.000625 -0 0  0.000625 -0 0  0.000625 -0 0  0.000625 -0 0  0.000625 -0 0  0.000625 -0 0  0.000625 -0 0  0.000625 -0 0  0.000625 -0 0  0.000625 -0 0  0.000625 -0 0  0.000625 -0 0  0.000625 -0 0  0.000625 -0 0  0.000625 -0 0  0.000625 -0 0  0.000625 -0 0  0.000625 -0 0  0.000625 -0 0  0.000625 -0 0  0.000625 -0 0  0.000625 -0 0  0.000625 -0 0  0.000625 -0 0  0.000625 -0 0  0.000625 -0 0  0.000625 -0 0  0.000625 -0 0  0.000625 -0 0  0.000625 -0 0  0.000625 -0 0  0.000625 -0 0  0.000625 -0 0  0.000625 -0 0  0.000625 -0 0  0.000625 -0 0  0.000625 -0 0  0.000625 -0 0  0.000625 -0 0  0.000625 -0 0  0.000625 -0 0  0.000625 -0 0  0.000625 -0 0  0.000625 -0 0  0.000625 -0 0  0.000625 -0 0  0.000625 -0 0  0.000625 -0 0  0.000625 -0 0  0.000625 -0 0  0.000625 -0 0  0.000625 -0 0  0.000625 -0 0  0.000625 -0 0  0.000625 -0 0  0.000625 -0 0  0.000625 -0 0  0.000625 -0 0  0.000625 -0 0  0.000625 -0 0  0.000625 -0 0  0.000625 -0 0  0.000625 -0 0  0.000625 -0 0  0.000625 -0 0  0.000625 -0 0  0.000625 -0 0  0.000625 -0 0  0.000625 -0 0  0.000625 -0 0  0.000625 -0 0  0.000625 -0 0  0.000625 -0 0  0.000625 -0 0  0.000625 -0 0  0.000625 -0 0  0.000625 -0 0  0.000625 -0 0  0.000625 -0 0  0.000625 -0 0  0.000625 -0 0  0.000625 -0 0  0.000625 -0 0  0.000625 -0 0  0.000625 -0 0  0.000625 -0 0  0.000625 -0 0  0.000625 -0 0  0.000625 -0 0  0.000625 -0 0  0.000625 -0 0  0.000625 -0 0  0.000625 -0 0  0.000625 -0 0  0.000625 -0 0  0.000625 -0 0  0.000625 -0 0  0.000625 -0 0  0.000625 -0 0  0.000625 -0 0  0.000625 -0 0  0.000625 -0 0  0.000625 -0 0  0.000625 -0 0  0.000625 -0 0  0.000625 -0 0  0.000625 -0 0  0.000625 -0 0  0.000625 -0 0  0.000625 -0 0  0.000625 -0 0  0.000625 -0 0  0.000625 -0 0  0.000625 -0 0  0.000625 -0 0  0.000625 -0 0  0.000625 -0 0  0.000625 -0 0  0.000625 -0 0  0.000625 -0 0  0.000625 -0 0  0.000625 -0 0  0.000625 -0 0  0.000625 -0 0  0.000625 -0 0  0.000625 -0 0  0.000625 -0 0  0.000625 -0 0  0.000625 -0 0  0.000625 -0 0  0.000625 -0 0  0.000625 -0 0  0.000625 -0 0  0.000625 -0 0  0.000625 -0 0  0.000625 -0 0  0.000625 -0 0  0.000625 -0 0  0.000625 -0 0  0.000625 -0 0  0.000625 -0 0  0.000625 -0 0  0.000625 -0 0  0.000625 -0 0  0.000625 -0 0  0.000625 -0 0  0.000625 -0 0  0.000625 -0 0  0.000625 -0 0  0.000625 -0 0  0.000625 -0 0  0.000625 -0 0  0.000625 -0 0  0.000625 -0 0  0.000625 -0 0  0.000625 -0 0  0.000625 -0 0  0.000625 -0 0  0.000625 -0 0  0.000625 -0 0  0.000625 -0 0  0.000625 -0 0  0.000625 -0 0  0.000625 -0 0  0.000625 -0 0  0.000625 -0 0  0.000625 -0 0  0.000625 -0 0  0.000625 -0 0  0.000625 -0 0  0.000625 -0 0  0.000625 -0 0  0.000625 -0 0  0.000625 -0 0  0.000625 -0 0  0.000625 -0 0  0.000625 -0 0  0.000625 -0 0  0.000625 -0 0  0.000625 -0 0  0.000625 -0 0  0.000625 -0 0  0.000625 -0 0  0.000625 -0 0  0.000625 -0 0  0.000625 -0 0  0.000625 -0 0  0.000625 -0 0  0.000625 -0 0  0.000625 -0 0  0.000625 -0 0  0.000625 -0 0  0.000625 -0 0  0.000625 -0 0  0.000625 -0 0  0.000625 -0 0  0.000625 -0 0  0.000625 -0 0  0.000625 -0 0  0.000625 -0 0  0.000625 -0 0  0.000625 -0 0  0.000625 -0 0  0.000625 -0 0  0.000625 -0 0  0.000625 -0 0  0.000625 -0 0  0.000625 -0 0  0.000625 -0 0  0.000625 -0 0  0.000625 -0 0  0.000625 -0 0  0.000625 -0 0  0.000625 -0 0  0.000625 -0 0  0.000625 -0 0  0.000625 -0 0  0.000625 -0 0  0.000625 -0 0  0.000625 -0 0  0.000625 -0 0  0.000625 -0 0  0.000625 -0 0  0.000625 -0 0  0.000625 -0 0  0.000625 -0 0  0.000625 -0 0  0.000625 -0 0  0.000625 -0 0  0.000625 -0 0  0.000625 -0 0  0.000625 -0 0  0.000625 -0 0  0.000625 -0 0  0.000625 -0 0  0.000625 -0 0  0.000625 -0 0  0.000625 -0 0  0.000625 -0 0  0.000625 -0 0  0.000625 -0 0  0.000625 -0 0  0.000625 -0 0  0.000625 -0 0  0.000625 -0 0  0.000625 -0 0  0.000625 -0 0  0.000625 -0 0  0.000625 -0 0  0.000625 -0 0  0.000625 -0 0  0.000625 -0 0  0.000625 -0 0  0.000625 -0 0  0.000625 -0 0  0.000625 -0 0  0.000625 -0 0  0.000625 -0 0  0.000625 -0 0  0.000625 -0 0  0.000625 -0 0  0.000625 -0 0  0.000625 -0 0  0.000625 -0 0  0.000625 -0 0  0.000625 -0 0  0.000625 -0 0  0.000625 -0 0  0.000625 -0 0  0.000625 -0 0  0.000625 -0 0  0.000625 -0 0  0.000625 -0 0  0.000625 -0 0  0.000625 -0 0  0.000625 -0 0  0.000625 -0 0  0.000625 -0 0  0.000625 -0 0  0.000625 -0 0  0.000625 -0 0  0.000625 -0 0  0.000625 -0 0  0.000625 -0 0  0.000625 -0 0  0.000625 -0 0  0.000625 -0 0  0.000625 -0 0  0.000625 -0 0  0.000625 -0 0  0.000625 -0 0  0.000625 -0 0  0.000625 -0 0  0.000625 -0 0  0.000625 -0 0  0.000625 -0 0  0.000625 -0 0  0.000625 -0 0  0.000625 -0 0  0.000625 -0 0  0.000625 -0 0  0.000625 -0 0  0.000625 -0 0  0.000625 -0 0  0.000625 -0 0  0.000625 -0 0  0.000625 -0 0  0.000625 -0 0  0.000625 -0 0  0.000625 -0 0  0.000625 -0 0  0.000625 -0 0  0.000625 -0 0  0.000625 -0 0  0.000625 -0 0  0.000625 -0 0  0.000625 -0 0  0.000625 -0 0  0.000625 -0 0  0.000625 -0 0  0.000625 -0 0  0.000625 -0 0  0.000625 -0 0  0.000625 -0 0  0.000625 -0 0  0.000625 -0 0  0.000625 -0 0  0.000625 -0 0  0.000625 -0 0  0.000625 -0 0  0.000625 -0 0  0.000625 -0 0  0.000625 -0 0  0.000625 -0 0  0.000625 -0 0  0.000625 -0 0  0.000625 -0 0  0.000625 -0 0  0.000625 -0 0  0.000625 -0 0  0.000625 -0 0  0.000625 -0 0  0.000625 -0 0  0.000625 -0 0  0.000625 -0 0  0.000625 -0 0  0.000625 -0 0  0.000625 -0 0  0.000625 -0 0  0.000625 -0 0  0.000625 -0 0  0.000625 -0 0  0.000625 -0 0  0.000625 -0 0  0.000625 -0 0  0.000625 -0 0  0.000625 -0 0  0.000625 -0 0  0.000625 -0 0  0.000625 -0 0  0.000625 -0 0  0.000625 -0 0  0.000625 -0 0  0.000625 -0 0  0.000625 -0 0  0.000625 -0 0  0.000625 -0 0  0.000625 -0 0  0.000625 -0 0  0.000625 -0 0  0.000625 -0 0  0.000625 -0 0  0.000625 -0 0  0.000625 -0 0  0.000625 -0 0  0.000625 -0 0  0.000625 -0 0  0.000625 -0 0  0.000625 -0 0  0.000625 -0 0  0.000625 -0 0  0.000625 -0 0  0.000625 -0 0  0.000625 -0 0  0.000625 -0 0  0.000625 -0 0  0.000625 -0 0  
            </DataArray>
         </PointData> 
      </Piece>
   </UnstructuredGrid> 
</VTKFile>
